64   
Dihedral (-175, -30) Energy -1434.367550841
C       -0.0020809057   -0.0359321954    0.9802743555
C       -0.7743180753   -0.6108431909    1.9961636951
C       -0.2368859789   -1.5957841473    2.8194836343
C        1.0850527260   -2.0078589582    2.6367330324
C        1.8893474078   -1.3941939069    1.6787963580
C        1.3587542879   -0.3881960268    0.8660911610
N        2.1741426362    0.4618452411    0.0374380957
C        1.8329224227    1.8594270112    0.1144293494
C        2.7728779567    2.8622468066    0.3728924337
C        2.3384319032    4.1500338171    0.6869578124
C        0.9739025379    4.4460982613    0.7242399932
C        0.0437474573    3.4516953956    0.4418502844
C        0.4612411931    2.1542029340    0.1066735237
C       -0.4950132590    1.0103546633    0.0444185463
C       -1.7231783323    1.1016813987   -0.5162224419
C       -2.9933713834    0.3379946402   -0.3193514519
C       -3.2808873948   -1.0025044742    0.0848173865
C       -2.3089941377   -2.0328458056    0.1490193500
C       -2.6393358508   -3.3018643529    0.5671631376
C       -3.9682502976   -3.6146039627    0.9380449515
C       -4.9482213453   -2.6536788587    0.8500225629
C       -4.6435560332   -1.3354940022    0.4132833809
C       -5.6670912516   -0.3594282847    0.2766097460
C       -5.3793857571    0.9023089402   -0.1926238756
C       -4.0475938270    1.2426660646   -0.4867812803
C       -3.5577318213    2.5665062988   -1.0526144475
C       -2.1124822776    2.2118312139   -1.5100839077
C       -2.1125119152    1.6161289496   -2.9342696863
H       -1.7980001550   -0.2897625228    2.1201785286
H       -0.8490911900   -2.0458059696    3.5908073667
H        1.5051869640   -2.7845637834    3.2643886936
H        2.9197782591   -1.6834078161    1.5564200807
H        3.8228489558    2.6209009191    0.3302428549
H        3.0695072139    4.9176887696    0.9091804194
H        0.6384293941    5.4384590356    0.9997144903
H       -1.0151487838    3.6516802716    0.5383741309
H       -3.5328622323    3.3375339934   -0.2705253804
H       -4.1863449947    2.9175519042   -1.8769858040
H       -1.4406462411    3.0660017717   -1.4714672973
H       -2.7951253692    0.7625571039   -2.9815911797
H       -2.4332246046    2.3715171066   -3.6607474516
H       -1.1061943345    1.2767583338   -3.1986771386
H       -1.2981474707   -1.8109478171   -0.1567899316
H       -6.1652341713    1.6361343998   -0.3297268880
H       -1.8745941203   -4.0676646483    0.6108968093
H       -5.9762867043   -2.8873714388    1.1043556451
H       -6.6846392891   -0.6381947046    0.5269689901
H       -4.2119333885   -4.6157073809    1.2729128344
C        3.3183046801    0.0614098027   -0.6376776346
O        4.1271925090    0.8409846445   -1.1545381465
O        3.4169080559   -1.3057544850   -0.6465224823
C        4.5827537813   -1.9538279307   -1.3468610433
C        4.5477219347   -1.5845132173   -2.8342180789
C        5.8872032249   -1.5183455061   -0.6695565424
C        4.2936957585   -3.4398776765   -1.1254551344
H        3.5831500574   -1.8743082575   -3.2622899007
H        4.6868752982   -0.5092079652   -2.9466714409
H        5.3453009031   -2.1201331797   -3.3585479563
H        5.8512797233   -1.7670954073    0.3960491269
H        6.7280551233   -2.0476605130   -1.1284649881
H        6.0177298324   -0.4426008767   -0.7879820095
H        5.0674478042   -4.0426162007   -1.6103501961
H        4.2807498992   -3.6622217757   -0.0546587866
H        3.3174287531   -3.6916574907   -1.5480834454
64   
Dihedral (-175, -25) Energy -1434.368100782
C        0.0022849244   -0.0182596554    1.0182479348
C       -0.7592563924   -0.5776104614    2.0506769428
C       -0.2149651980   -1.5570869584    2.8760213821
C        1.1018545371   -1.9786166802    2.6773304541
C        1.8967291303   -1.3791849418    1.7024849603
C        1.3599114314   -0.3772332567    0.8889600074
N        2.1667924222    0.4661075742    0.0448417044
C        1.8335109970    1.8654541232    0.1292296420
C        2.7820307182    2.8620711482    0.3802888079
C        2.3571175761    4.1484699403    0.7127192053
C        0.9944766975    4.4483672816    0.7785897573
C        0.0558813421    3.4603429061    0.5016966299
C        0.4630903180    2.1656888894    0.1438343617
C       -0.4966032743    1.0236730927    0.0809678258
C       -1.7241386066    1.1128836558   -0.4834605941
C       -2.9908371075    0.3422840821   -0.2955866316
C       -3.2692280089   -1.0016608167    0.1124531951
C       -2.2850525443   -2.0163227491    0.2219118830
C       -2.6088504474   -3.2855495592    0.6455937888
C       -3.9436555333   -3.6162512102    0.9755867306
C       -4.9361949076   -2.6748872194    0.8332965664
C       -4.6380962199   -1.3590895655    0.3855021622
C       -5.6767611048   -0.4133366654    0.1716593884
C       -5.3955692240    0.8405743635   -0.3199437843
C       -4.0588312240    1.2083418767   -0.5540218931
C       -3.5798595790    2.5487166469   -1.0805964147
C       -2.1046617559    2.2467465203   -1.4572645030
C       -2.0107718194    1.6914864882   -2.8963322206
H       -1.7803564055   -0.2509751710    2.1837582252
H       -0.8179440990   -1.9965033967    3.6606114150
H        1.5262946507   -2.7519275547    3.3062553534
H        2.9237461766   -1.6753895246    1.5683688329
H        3.8302351628    2.6168104384    0.3188611992
H        3.0945649385    4.9117670585    0.9287908765
H        0.6675147944    5.4386568786    1.0712156667
H       -1.0003822043    3.6629802882    0.6192851385
H       -3.6287581644    3.3100748682   -0.2900076117
H       -4.1690389691    2.8906118045   -1.9373098779
H       -1.4608658344    3.1169707472   -1.3624480100
H       -2.6609182106    0.8174825382   -3.0002362317
H       -2.3201263661    2.4550930008   -3.6192406801
H       -0.9812876637    1.3925420498   -3.1162898168
H       -1.2694822440   -1.7858574726   -0.0583692977
H       -6.1902957112    1.5503993692   -0.5184109084
H       -1.8332362232   -4.0376420393    0.7230729106
H       -5.9696004137   -2.9236783232    1.0487200178
H       -6.6986474908   -0.7112041068    0.3785001867
H       -4.1821615331   -4.6162075810    1.3175073868
C        3.3014649477    0.0600949633   -0.6426041266
O        4.1055289385    0.8351713069   -1.1734588146
O        3.3970366034   -1.3073192188   -0.6452115626
C        4.5515779364   -1.9619979685   -1.3581584375
C        4.4971430105   -1.5998891042   -2.8466961578
C        5.8662139855   -1.5265206059   -0.7008067800
C        4.2618171800   -3.4461866685   -1.1254646361
H        3.5260855584   -1.8892629893   -3.2601392123
H        4.6375207826   -0.5255169858   -2.9664216562
H        5.2861314198   -2.1401225882   -3.3792154296
H        5.8441214038   -1.7698621916    0.3664233884
H        6.6994350229   -2.0602658961   -1.1684097389
H        5.9978085414   -0.4517170584   -0.8263725374
H        5.0273798446   -4.0533079232   -1.6178262569
H        4.2629326001   -3.6632132610   -0.0534947155
H        3.2792670681   -3.6975366232   -1.5335370400
64   
Dihedral (-175, -20) Energy -1434.367637841
C        0.0057020423    0.0013144718    1.0326765067
C       -0.7366438617   -0.5400278313    2.0883076828
C       -0.1801747794   -1.5128017758    2.9135745152
C        1.1291678811   -1.9459681900    2.6907982081
C        1.9064499435   -1.3629672611    1.6918538694
C        1.3580142439   -0.3663574830    0.8796023102
N        2.1491485201    0.4688353133    0.0126336644
C        1.8258040270    1.8706163499    0.1039214164
C        2.7853143444    2.8594279135    0.3435749551
C        2.3754072854    4.1447783470    0.6978348469
C        1.0160741204    4.4503352445    0.7980448792
C        0.0660317612    3.4705462157    0.5306486646
C        0.4573192080    2.1780621868    0.1480738623
C       -0.5059453127    1.0370234627    0.0953844275
C       -1.7381918911    1.1206024234   -0.4612480549
C       -2.9964951942    0.3370152477   -0.2741843085
C       -3.2591508591   -1.0111999777    0.1404744266
C       -2.2608993826   -2.0068804611    0.2877691067
C       -2.5714862201   -3.2771100349    0.7193630326
C       -3.9072293031   -3.6301518105    1.0184405491
C       -4.9138372439   -2.7122000658    0.8295352172
C       -4.6285436143   -1.3982993301    0.3686524141
C       -5.6827251458   -0.4886059763    0.0855794215
C       -5.4128266338    0.7564491665   -0.4317480135
C       -4.0773850434    1.1569651221   -0.6162556413
C       -3.6238288483    2.5129150032   -1.1171589729
C       -2.1223517255    2.2752022214   -1.4127109277
C       -1.9293764407    1.7699224502   -2.8616713096
H       -1.7537987208   -0.2070507402    2.2371771943
H       -0.7682723399   -1.9392454448    3.7164025467
H        1.5621811236   -2.7148460328    3.3193260703
H        2.9285247872   -1.6670477659    1.5387939995
H        3.8305178789    2.6080946206    0.2585229490
H        3.1214973984    4.9020241242    0.9053459068
H        0.7009175479    5.4385717471    1.1099550691
H       -0.9856989358    3.6781614002    0.6760559847
H       -3.7523761639    3.2692679319   -0.3307380899
H       -4.1763987973    2.8328295205   -2.0062323404
H       -1.5191010010    3.1650422432   -1.2598531745
H       -2.5360536451    0.8735065517   -3.0242363951
H       -2.2332036153    2.5415296709   -3.5784883129
H       -0.8781554069    1.5198072347   -3.0344396145
H       -1.2440244746   -1.7649823915    0.0254319531
H       -6.2161204823    1.4379533483   -0.6868342506
H       -1.7833321494   -4.0126192832    0.8246585604
H       -5.9486467450   -2.9797055405    1.0135915103
H       -6.7042262392   -0.8093794473    0.2570830176
H       -4.1355551845   -4.6294775757    1.3689861936
C        3.2704950097    0.0562319836   -0.6919217937
O        4.0654026979    0.8264721816   -1.2430921540
O        3.3643650588   -1.3112802438   -0.6853192502
C        4.5062102554   -1.9721589103   -1.4126498175
C        4.4263609110   -1.6216289114   -2.9027614188
C        5.8318383987   -1.5316384983   -0.7812634746
C        4.2202843887   -3.4543884656   -1.1632425538
H        3.4482795077   -1.9137915302   -3.2972307400
H        4.5649399530   -0.5482492489   -3.0332208842
H        5.2059845001   -2.1662754083   -3.4444970529
H        5.8280005413   -1.7666245715    0.2880600657
H        6.6569977100   -2.0690353416   -1.2588565777
H        5.9611674975   -0.4578303401   -0.9174526425
H        4.9772631811   -4.0655578861   -1.6637965969
H        4.2397888206   -3.6629468254   -0.0897621267
H        3.2308855845   -3.7087631321   -1.5524446543
64   
Dihedral (-175, -15) Energy -1434.366368345
C       -0.0071562314   -0.0073787878    1.0848043790
C       -0.7360726452   -0.5350923689    2.1565942250
C       -0.1679002280   -1.4964301995    2.9874058772
C        1.1392920276   -1.9305585485    2.7530493588
C        1.9041413391   -1.3585245720    1.7380580914
C        1.3446438442   -0.3720736045    0.9210919391
N        2.1235135539    0.4596847831    0.0393184637
C        1.7992030964    1.8615540579    0.1329638294
C        2.7583007086    2.8537874677    0.3605553993
C        2.3482789439    4.1357838907    0.7274246345
C        0.9897828987    4.4333662629    0.8571426758
C        0.0397427076    3.4509816844    0.5999342927
C        0.4306794083    2.1642598121    0.1984050050
C       -0.5285833707    1.0184256849    0.1428900332
C       -1.7556563088    1.0938405583   -0.4282198463
C       -3.0085072667    0.2959455133   -0.2719415123
C       -3.2623850896   -1.0508647958    0.1621391856
C       -2.2554232794   -2.0246120360    0.3787593610
C       -2.5608877459   -3.2889172128    0.8322479461
C       -3.9009822710   -3.6602125073    1.0829231035
C       -4.9143727125   -2.7692692723    0.8159879951
C       -4.6331294535   -1.4646330677    0.3278280344
C       -5.6910554563   -0.5960770869   -0.0540341217
C       -5.4216064797    0.6330739284   -0.6064102218
C       -4.0875425273    1.0649002820   -0.7208703840
C       -3.6528706348    2.4318342706   -1.2019453603
C       -2.1237731108    2.2685348261   -1.3654749703
C       -1.7802578044    1.8284441851   -2.8086564705
H       -1.7527688561   -0.2026880087    2.3116736223
H       -0.7449302647   -1.9137579305    3.8029787355
H        1.5810328077   -2.6911806314    3.3855292530
H        2.9250084665   -1.6625760126    1.5767468947
H        3.8030651425    2.6074273218    0.2572185081
H        3.0944480984    4.8957773825    0.9244092494
H        0.6758348077    5.4175470263    1.1827699536
H       -1.0099712328    3.6525309651    0.7666649969
H       -3.8889208169    3.1883205854   -0.4411237842
H       -4.1396500828    2.7169430826   -2.1401784728
H       -1.5812712245    3.1787937635   -1.1321059325
H       -2.3224096374    0.9089460312   -3.0521993272
H       -2.0622994170    2.6091239869   -3.5246131359
H       -0.7062668520    1.6377405684   -2.8958826899
H       -1.2339817138   -1.7753252378    0.1464977891
H       -6.2239323648    1.2818155967   -0.9384104123
H       -1.7639576871   -4.0054262315    0.9897696768
H       -5.9517622655   -3.0534655069    0.9549250703
H       -6.7125502932   -0.9382579362    0.0692124588
H       -4.1265766750   -4.6530301752    1.4531664845
C        3.2383715524    0.0460247906   -0.6746253823
O        4.0239561517    0.8149320536   -1.2407869517
O        3.3374671911   -1.3210352698   -0.6573997020
C        4.4711632459   -1.9854590753   -1.3946189119
C        4.3705648706   -1.6476134192   -2.8864217226
C        5.8041754136   -1.5371054172   -0.7845764551
C        4.1918676941   -3.4661491841   -1.1292217052
H        3.3879805351   -1.9452311467   -3.2653222698
H        4.5050059768   -0.5751039206   -3.0278271779
H        5.1441356313   -2.1950703336   -3.4339678049
H        5.8148825742   -1.7630534632    0.2866474611
H        6.6240316386   -2.0769844390   -1.2684614716
H        5.9295420681   -0.4642700513   -0.9314925114
H        4.9434103134   -4.0798425012   -1.6348502764
H        4.2262885889   -3.6657855328   -0.0544154323
H        3.1979046087   -3.7257889548   -1.5030067973
64   
Dihedral (-175, -10) Energy -1434.364353033
C       -0.0029511962    0.0041622335    1.1003090068
C       -0.7089771166   -0.5025668333    2.1971521434
C       -0.1257444880   -1.4549652380    3.0281012764
C        1.1729123128   -1.9007776921    2.7685313675
C        1.9169538530   -1.3474199598    1.7277660869
C        1.3429772185   -0.3686944497    0.9117673084
N        2.1029951147    0.4531761250    0.0046784258
C        1.7885428553    1.8574907371    0.1035145503
C        2.7586003629    2.8424270127    0.3151723282
C        2.3647902307    4.1238015588    0.7013550896
C        1.0113908491    4.4265720638    0.8670883632
C        0.0495699863    3.4519341336    0.6238441239
C        0.4230491635    2.1671124727    0.2009517529
C       -0.5386943639    1.0209342522    0.1571488452
C       -1.7662681481    1.0888347277   -0.4149832325
C       -3.0107483673    0.2741776732   -0.2803467790
C       -3.2584652241   -1.0687645166    0.1786394581
C       -2.2471974376   -2.0211318011    0.4585903918
C       -2.5496011809   -3.2769033636    0.9383114357
C       -3.8912226142   -3.6633213104    1.1513613919
C       -4.9070359395   -2.7993673215    0.8136811887
C       -4.6271882650   -1.5067530021    0.2945081029
C       -5.6829723270   -0.6804543098   -0.1766766907
C       -5.4104127553    0.5287578029   -0.7677470862
C       -4.0821711277    0.9907374311   -0.8251501620
C       -3.6723196731    2.3615915706   -1.3103584322
C       -2.1295961483    2.2838707709   -1.3330773910
C       -1.6249514168    1.9381034893   -2.7545801381
H       -1.7210663431   -0.1637637406    2.3693434888
H       -0.6849239837   -1.8572930765    3.8634149095
H        1.6251413499   -2.6551417576    3.4011000454
H        2.9321604853   -1.6592348109    1.5464033383
H        3.7992587936    2.5902440047    0.1866221177
H        3.1194508344    4.8784376697    0.8862007128
H        0.7106658260    5.4091626247    1.2095787495
H       -0.9938192026    3.6591227219    0.8196953804
H       -4.0209803206    3.1256292960   -0.6026180306
H       -4.0847676514    2.5916508456   -2.2983782026
H       -1.6706319973    3.2120069297   -1.0104181173
H       -2.0811746874    0.9999874161   -3.0879052885
H       -1.8894414419    2.7337256271   -3.4607343845
H       -0.5374403605    1.8173302662   -2.7457891794
H       -1.2229275565   -1.7672017698    0.2493075476
H       -6.2068887065    1.1436430629   -1.1707398730
H       -1.7471385203   -3.9750174444    1.1433064425
H       -5.9445972853   -3.0980613612    0.9162441326
H       -6.7017600156   -1.0418293987   -0.0918849377
H       -4.1153493045   -4.6477190156    1.5442385330
C        3.2014846982    0.0314905658   -0.7290919776
O        3.9754027235    0.7943248932   -1.3189183658
O        3.2992171663   -1.3354803671   -0.7004334196
C        4.4140040027   -2.0086683664   -1.4581179455
C        4.2781994717   -1.6841657371   -2.9500619941
C        5.7618121907   -1.5569159561   -0.8841669046
C        4.1389617327   -3.4863866851   -1.1725092524
H        3.2863586440   -1.9834606297   -3.3025924316
H        4.4108778670   -0.6131910980   -3.1044284546
H        5.0376165694   -2.2378318660   -3.5110072892
H        5.7976964843   -1.7730702085    0.1885285430
H        6.5691417073   -2.1025292308   -1.3824687519
H        5.8850712142   -0.4856641547   -1.0438505452
H        4.8773510099   -4.1059246379   -1.6902437283
H        4.1988191561   -3.6761990835   -0.0970325145
H        3.1359876338   -3.7478025561   -1.5200523413
64   
Dihedral (-175, -5) Energy -1434.362002923
C       -0.0299953173   -0.0048023055    1.1897355603
C       -0.7138153026   -0.5018189517    2.3050925911
C       -0.1106430526   -1.4432766738    3.1345303308
C        1.1853667262   -1.8855152277    2.8552296265
C        1.9086922402   -1.3378596567    1.7968318513
C        1.3155338531   -0.3693735220    0.9825134924
N        2.0554817529    0.4548157506    0.0605957362
C        1.7375332994    1.8581036338    0.1664436784
C        2.7050683561    2.8498428575    0.3566816618
C        2.3106702429    4.1275122376    0.7555506201
C        0.9602382165    4.4183427696    0.9600989327
C        0.0001829233    3.4372815399    0.7360261647
C        0.3726907562    2.1587579238    0.2953568716
C       -0.5818266348    1.0044712742    0.2485930581
C       -1.8004193010    1.0640933858   -0.3451838529
C       -3.0369692583    0.2314902865   -0.2609164028
C       -3.2925527949   -1.0993733067    0.2355462978
C       -2.2892564280   -2.0292843451    0.6034579435
C       -2.6029755810   -3.2676364863    1.1209368167
C       -3.9491115611   -3.6606158595    1.2835707400
C       -4.9539214531   -2.8254391540    0.8525805141
C       -4.6597908178   -1.5541329986    0.2912159211
C       -5.6960244873   -0.7717304503   -0.2866768920
C       -5.4029778902    0.4085597578   -0.9227323519
C       -4.0814263834    0.8948367283   -0.9128130728
C       -3.6796563990    2.2555559680   -1.4259233633
C       -2.1438899568    2.2854501366   -1.2417455167
C       -1.4226891606    2.0921756526   -2.5962058737
H       -1.7248715263   -0.1665319003    2.4909603763
H       -0.6518833454   -1.8395599491    3.9844561854
H        1.6525125870   -2.6316272100    3.4867426362
H        2.9225751268   -1.6454347348    1.6010367777
H        3.7441415202    2.6059627753    0.2018213172
H        3.0639643047    4.8877336003    0.9222374666
H        0.6608640149    5.3968433266    1.3152476477
H       -1.0390617471    3.6369073887    0.9586447308
H       -4.1684838383    3.0375967828   -0.8305488788
H       -3.9640159064    2.3965246703   -2.4746184428
H       -1.8215132503    3.2210136718   -0.7980457354
H       -1.7431861396    1.1482303427   -3.0498495307
H       -1.6606169898    2.9149340186   -3.2802961460
H       -0.3400360429    2.0594650497   -2.4426611228
H       -1.2593910191   -1.7775290327    0.4269812469
H       -6.1798950291    0.9875678586   -1.4085784510
H       -1.8041702133   -3.9470548864    1.3924680657
H       -5.9922598635   -3.1334283032    0.9099872349
H       -6.7127935300   -1.1462876474   -0.2469023387
H       -4.1838356334   -4.6294605563    1.7076449594
C        3.1428853379    0.0370273817   -0.6914387902
O        3.9010647028    0.8022208125   -1.2983323277
O        3.2492559037   -1.3291204510   -0.6587097251
C        4.3493067473   -1.9996792191   -1.4399732223
C        4.1766157102   -1.6812167600   -2.9294019682
C        5.7079403463   -1.5391653685   -0.8995318546
C        4.0884065844   -3.4776419922   -1.1427178030
H        3.1782202181   -1.9866442566   -3.2572933593
H        4.3003143680   -0.6101708147   -3.0907309957
H        4.9253201131   -2.2331080667   -3.5062666883
H        5.7699447571   -1.7509035768    0.1728489744
H        6.5060376918   -2.0828713329   -1.4145152601
H        5.8220962993   -0.4679622151   -1.0661150169
H        4.8174963866   -4.0954556063   -1.6754759494
H        4.1745598540   -3.6631555826   -0.0682732403
H        3.0788403075   -3.7452417766   -1.4655706236
64   
Dihedral (-175, 0) Energy -1434.359925987
C        0.0548470261   -0.2343063290    1.1664448927
C        1.0473443328   -0.4487422430    2.1309106982
C        0.9494754343   -1.5191002099    3.0140535672
C       -0.1385176770   -2.3920440643    2.9304080583
C       -1.1709311011   -2.1522874692    2.0240350381
C       -1.0921614366   -1.0423445839    1.1781777759
N       -2.1778010907   -0.5698699458    0.3751108384
C       -2.3185839712    0.8638255984    0.3569074923
C       -3.5456765473    1.4634734389    0.6497939887
C       -3.6379042906    2.8433201730    0.8039495869
C       -2.5068328547    3.6333280032    0.6069789692
C       -1.2816351894    3.0404457768    0.3179309864
C       -1.1427190839    1.6431174370    0.2270353193
C        0.1436878870    0.8752119712    0.1786332799
C        1.3348000098    1.2766825997   -0.3563715237
C        2.6196131608    0.5431917557   -0.5861236723
C        3.0800130555   -0.7911585102   -0.2737714465
C        2.2432439249   -1.8860052575    0.0651928245
C        2.7591250005   -3.1252923212    0.3759416225
C        4.1521704333   -3.3516317386    0.3692817589
C        4.9975612835   -2.3383053236   -0.0161169699
C        4.4956742232   -1.0578438370   -0.3745763059
C        5.3830758199   -0.0707305240   -0.8810493142
C        4.8984912919    1.1317123369   -1.3353826958
C        3.5338403334    1.4236353882   -1.1838150181
C        2.8347213533    2.6412087086   -1.7470737455
C        1.5609063166    2.7097160057   -0.8804734884
C        1.9314228982    3.5753232395    0.3638972557
H        1.9057120536    0.2090017165    2.1473987897
H        1.7317086890   -1.6907491154    3.7426279294
H       -0.2016000525   -3.2477126424    3.5917380966
H       -2.0251344894   -2.8054051232    1.9561349354
H       -4.4177058826    0.8390144915    0.7604124767
H       -4.5894221026    3.2942454045    1.0569783202
H       -2.5682565050    4.7106125414    0.7026861017
H       -0.4220709548    3.6755456261    0.2171484209
H        2.5994581438    2.4581762489   -2.8036662421
H        3.4289868609    3.5567239976   -1.6729981798
H        0.6963547225    3.1025096838   -1.4163503936
H        2.9196177800    3.2577421607    0.7131860465
H        1.9783326566    4.6378448841    0.0974704032
H        1.2317278429    3.4376635235    1.1905037047
H        1.1765226573   -1.7598254455    0.0356488256
H        5.5550942592    1.8629875707   -1.7920824675
H        2.0807664964   -3.9318778985    0.6250461438
H        6.0676035053   -2.5038372448   -0.0783315134
H        6.4397491135   -0.3057813117   -0.9425082407
H        4.5452123390   -4.3256883024    0.6345051258
C       -3.0869904368   -1.4483274905   -0.1973341736
O       -3.0576818443   -2.6763956386   -0.0490226932
O       -4.0112958658   -0.7621691406   -0.9394135117
C       -5.0798357719   -1.5268281606   -1.6750361546
C       -5.8544746136   -0.3985960215   -2.3589946388
C       -5.9483452504   -2.2848497280   -0.6643557605
C       -4.4209583817   -2.4633108348   -2.6941976230
H       -6.6721269465   -0.8186172579   -2.9524295290
H       -6.2644745354    0.2803991080   -1.6061021526
H       -5.1829026157    0.1660576657   -3.0110468303
H       -5.3411920169   -3.0275103204   -0.1465570902
H       -6.3660949269   -1.5820280457    0.0638284737
H       -6.7705751887   -2.7786079964   -1.1915480747
H       -3.7774175147   -1.8837987335   -3.3631913549
H       -3.8227965840   -3.2098453061   -2.1713884900
H       -5.1976005304   -2.9572135518   -3.2865198308
64   
Dihedral (-175, 5) Energy -1434.357913722
C        0.0669253649   -0.2288692429    1.1165377089
C        1.0767995410   -0.4413725631    2.0640323481
C        0.9990886400   -1.5110326445    2.9491838521
C       -0.0882462710   -2.3864759557    2.8869660617
C       -1.1379135413   -2.1500382168    2.0005883847
C       -1.0767175072   -1.0410078831    1.1517486761
N       -2.1791163996   -0.5760896647    0.3688366655
C       -2.3215961754    0.8562087557    0.3372838897
C       -3.5445542178    1.4558109834    0.6471571324
C       -3.6443653273    2.8383915861    0.7668279642
C       -2.5277055973    3.6297692636    0.5048656771
C       -1.3064875855    3.0364715242    0.2016682828
C       -1.1518735621    1.6372154986    0.1654555275
C        0.1417308952    0.8813350363    0.1247938869
C        1.3443292816    1.2985322552   -0.3771014174
C        2.6234907074    0.5548129757   -0.5986789924
C        3.0546642390   -0.7935324277   -0.3094126387
C        2.1887326150   -1.8856551205   -0.0443201839
C        2.6733545263   -3.1423141469    0.2448353331
C        4.0624916707   -3.3883476215    0.2926560644
C        4.9383792518   -2.3734184507   -0.0117893524
C        4.4705054788   -1.0730706804   -0.3440689910
C        5.3954034885   -0.0732741731   -0.7489956435
C        4.9500374996    1.1564978418   -1.1700696098
C        3.5813591282    1.4556825593   -1.0877545203
C        2.9155763548    2.6807706873   -1.6765692650
C        1.5803693979    2.7293746764   -0.9034482895
C        1.8582755711    3.6102840655    0.3571118762
H        1.9322969131    0.2199165759    2.0670996181
H        1.7952600774   -1.6791522379    3.6633908164
H       -0.1366764907   -3.2416679884    3.5500769580
H       -1.9923732344   -2.8043463552    1.9495920775
H       -4.4085532281    0.8281528111    0.7965351224
H       -4.5915302964    3.2893773122    1.0354664325
H       -2.5963835335    4.7094686301    0.5596219589
H       -0.4607078550    3.6769457746    0.0427020548
H        2.7610229588    2.5121248672   -2.7502625537
H        3.4942533201    3.5999127486   -1.5464767707
H        0.7483868136    3.1041993320   -1.5004408201
H        2.8298529319    3.3118988273    0.7654139967
H        1.9031004697    4.6722575072    0.0878754292
H        1.1145419518    3.4645654163    1.1422152053
H        1.1254321500   -1.7399127362   -0.1081449073
H        5.6395178237    1.9009919704   -1.5506100277
H        1.9744052445   -3.9466724294    0.4377694031
H        6.0081864409   -2.5511585670   -0.0255342017
H        6.4516675243   -0.3178275797   -0.7597019355
H        4.4301636026   -4.3770216387    0.5395437764
C       -3.0942346139   -1.4593818550   -0.1863200039
O       -3.0572352919   -2.6869863268   -0.0351539609
O       -4.0333584547   -0.7787551181   -0.9147844834
C       -5.1124260080   -1.5487528852   -1.6288697042
C       -5.9026514821   -0.4246397872   -2.3017136474
C       -5.9604863276   -2.3065755567   -0.6007975522
C       -4.4692218490   -2.4860050353   -2.6573139643
H       -6.7290835174   -0.8486085930   -2.8799855836
H       -6.3016431317    0.2546723966   -1.5432211930
H       -5.2442966471    0.1407912131   -2.9664485254
H       -5.3420639100   -3.0462623394   -0.0921927270
H       -6.3668650356   -1.6029744629    0.1330430974
H       -6.7908054795   -2.8038471077   -1.1117743843
H       -3.8396326446   -1.9063107931   -3.3393124719
H       -3.8594405878   -3.2292487282   -2.1433219086
H       -5.2548646309   -2.9838593697   -3.2342572558
64   
Dihedral (-175, 10) Energy -1434.354963655
C        0.0335693725   -0.1934254319    1.0363843619
C        1.0551018275   -0.4017348416    1.9732089857
C        0.9973926247   -1.4729784187    2.8570967544
C       -0.0840823034   -2.3563799288    2.8088309999
C       -1.1459865781   -2.1245256266    1.9369217997
C       -1.1030027275   -1.0145848843    1.0876052317
N       -2.2194005179   -0.5597178603    0.3207512526
C       -2.3652049473    0.8708993707    0.2772266091
C       -3.5861993285    1.4638921312    0.6059162890
C       -3.6990603126    2.8475340559    0.6906430577
C       -2.6038915401    3.6426458380    0.3566046844
C       -1.3837519567    3.0554727242    0.0377890400
C       -1.2053132225    1.6577812809    0.0637760285
C        0.0977452722    0.9198195344    0.0424851713
C        1.3137970361    1.3573176501   -0.4142310163
C        2.5902659917    0.6093897791   -0.6209683527
C        2.9889220748   -0.7546992766   -0.3657671658
C        2.0937960906   -1.8406841380   -0.1904395956
C        2.5441149709   -3.1156370276    0.0709207883
C        3.9256103384   -3.3855209715    0.1813197276
C        4.8317689477   -2.3728877681   -0.0271362138
C        4.4001905678   -1.0517146914   -0.3250260023
C        5.3593994417   -0.0422930682   -0.6094836864
C        4.9561172545    1.2170878326   -0.9842692648
C        3.5877867592    1.5281396582   -0.9792333212
C        2.9651680946    2.7721015995   -1.5792503809
C        1.5622201753    2.7912531170   -0.9276306353
C        1.7157200733    3.6800767863    0.3506550685
H        1.9043241314    0.2671490908    1.9704957606
H        1.8036969507   -1.6346508978    3.5613913333
H       -0.1180064566   -3.2127493438    3.4713060906
H       -1.9976397487   -2.7831039945    1.8966458289
H       -4.4378836785    0.8301966993    0.7959467404
H       -4.6419983736    3.2960674664    0.9773789464
H       -2.6879780786    4.7226017585    0.3661925812